 Gaussian 09, Revision D.01,
 Gaussian 09:  AM64L-G09RevD.01 24-Apr-2013

 ----------------------------------------------------------------------
 # b3lyp/def2tzvp empiricaldispersion=gd3 pop=nbo6read pop=saveNBOs int
 =(grid=ultrafine) scf=(tight,maxcycle=300)
 ----------------------------------------------------------------------

 ---------------------------------------------
 Energy Optimisation and Frequency calculation
 ---------------------------------------------
 Symbolic Z-matrix:
 Charge =  0 Multiplicity = 1

                         Standard orientation:
 ---------------------------------------------------------------------
 Center     Atomic      Atomic             Coordinates (Angstroms)
 Number     Number       Type             X           Y           Z
 ---------------------------------------------------------------------
      1          6           0       -0.272962   -0.821932    0.304875
      2          6           0       -0.910699   -2.060703    0.317395
      3          6           0       -2.265994   -2.192382    0.034593
      4          6           0       -3.009414   -1.062015   -0.270256
      5          6           0       -2.398584    0.186978   -0.268920
      6          6           0       -1.040170    0.326109    0.022048
      7          1           0       -0.323987   -2.945817    0.535701
      8          1           0       -2.730504   -3.170116    0.044240
      9          1           0       -4.064546   -1.144532   -0.499486
     10          1           0       -2.990802    1.064137   -0.491922
     11          7           0       -0.399435    1.602365    0.022284
     12          6           0       -0.926453    2.589607   -0.905328
     13          1           0       -1.887352    3.026550   -0.589788
     14          1           0       -0.209428    3.408569   -0.993134
     15          1           0       -1.059416    2.141428   -1.889741
     16          6           0       -0.201949    2.170034    1.354044
     17          1           0       -1.142254    2.554549    1.780012
     18          1           0        0.513379    2.993405    1.300902
     19          1           0        0.190060    1.419413    2.036621
     20          6           0        1.221347   -0.750358    0.506006
     21          1           0        1.579847   -1.694457    0.919233
     22          1           0        1.501052    0.014928    1.228440
     23          6           0        1.960363   -0.464736   -0.802652
     24          1           0        1.604113    0.474533   -1.241760
     25          1           0        1.755140   -1.235828   -1.555320
     26          6           0        3.451068   -0.351845   -0.657990
     27          1           0        3.998546   -0.187956   -1.612433
     28          8           0        4.052859   -0.418488    0.383696
 ---------------------------------------------------------------------

 SCF Done:  E(RB3LYP) =  -558.395149893     A.U. after   14 cycles

 The electronic state is 1-A.
 Alpha  occ. eigenvalues --  -19.12664 -14.32447 -10.26147 -10.20856 -10.19824
 Alpha  occ. eigenvalues --  -10.19759 -10.18277 -10.18276 -10.17587 -10.17532
 Alpha  occ. eigenvalues --  -10.17415 -10.17402 -10.17248  -1.05316  -0.94319
 Alpha  occ. eigenvalues --   -0.85540  -0.80312  -0.74889  -0.74733  -0.71746
 Alpha  occ. eigenvalues --   -0.67606  -0.65065  -0.60028  -0.58115  -0.55922
 Alpha  occ. eigenvalues --   -0.52128  -0.49406  -0.49135  -0.47289  -0.46780
 Alpha  occ. eigenvalues --   -0.45849  -0.44901  -0.43962  -0.43470  -0.40953
 Alpha  occ. eigenvalues --   -0.40183  -0.39609  -0.39077  -0.38320  -0.37874
 Alpha  occ. eigenvalues --   -0.36104  -0.35806  -0.34740  -0.34201  -0.27225
 Alpha  occ. eigenvalues --   -0.26460  -0.24954  -0.21814
 Alpha virt. eigenvalues --   -0.02940  -0.01433  -0.01231   0.02680   0.04909
 Alpha virt. eigenvalues --    0.05071   0.05484   0.07759   0.07988   0.08559
 Alpha virt. eigenvalues --    0.09069   0.09509   0.09801   0.10858   0.11340

 Mulliken charges:
               1
     1  C    0.038130
     2  C   -0.160188
     3  C   -0.120990
     4  C   -0.101572
     5  C   -0.207595
     6  C    0.205338
     7  H    0.100224
     8  H    0.104901
     9  H    0.105491
    10  H    0.101542
    11  N   -0.170587
    12  C   -0.290171
    13  H    0.100075
    14  H    0.122760
    15  H    0.132212
    16  C   -0.258474
    17  H    0.099059
    18  H    0.117142
    19  H    0.129608
    20  C   -0.212641
    21  H    0.106630
    22  H    0.096184
    23  C   -0.168243
    24  H    0.127244
    25  H    0.114784
    26  C    0.090892
    27  H    0.070497
    28  O   -0.272252
 Sum of Mulliken charges =   0.00000

 Dipole moment (field-independent basis, Debye):
    X=             -2.1167    Y=              0.9392    Z=             -1.6741  Tot=              2.8575
 Quadrupole moment (field-independent basis, Debye-Ang):
   XX=            -89.7066   YY=            -72.9154   ZZ=            -79.6134
   XY=              0.3150   XZ=             -5.3010   YZ=              0.4092

 Summary of Natural Population Analysis:

                                     Natural Population
             Natural    ---------------------------------------------
  Atom No    Charge        Core      Valence    Rydberg      Total
 --------------------------------------------------------------------
    C  1   -0.02979      1.99999     4.01039    0.01941     6.02979
    C  2   -0.19793      1.99999     4.18039    0.01755     6.19793
    C  3   -0.21507      1.99999     4.19744    0.01764     6.21507
    C  4   -0.20379      1.99999     4.18612    0.01768     6.20379
    C  5   -0.24050      1.99999     4.22271    0.01781     6.24050
    C  6    0.14710      1.99999     3.83222    0.02070     5.85290
    H  7    0.20521      0.00000     0.79322    0.00158     0.79479
    H  8    0.20957      0.00000     0.78907    0.00137     0.79043
    H  9    0.20768      0.00000     0.79083    0.00148     0.79232
    H 10    0.20935      0.00000     0.78855    0.00210     0.79065
    N 11   -0.43997      1.99999     5.41546    0.02452     7.43997
    C 12   -0.39692      1.99999     4.38504    0.01189     6.39692
    H 13    0.16073      0.00000     0.83522    0.00406     0.83927
    H 14    0.19654      0.00000     0.80182    0.00165     0.80346
    H 15    0.20318      0.00000     0.79536    0.00147     0.79682
    C 16   -0.39132      1.99999     4.37966    0.01167     6.39132
    H 17    0.16548      0.00000     0.83027    0.00425     0.83452
    H 18    0.19293      0.00000     0.80539    0.00169     0.80707
    H 19    0.20254      0.00000     0.79603    0.00143     0.79746
    C 20   -0.40569      1.99999     4.38940    0.01630     6.40569
    H 21    0.21321      0.00000     0.78484    0.00194     0.78679
    H 22    0.21910      0.00000     0.77848    0.00243     0.78090
    C 23   -0.49314      1.99999     4.48112    0.01202     6.49314
    H 24    0.24175      0.00000     0.75635    0.00190     0.75825
    H 25    0.22144      0.00000     0.77686    0.00170     0.77856
    C 26    0.43915      1.99999     3.52884    0.03202     5.56085
    H 27    0.09667      0.00000     0.89907    0.00426     0.90333
    O 28   -0.51751      1.99999     6.49299    0.02452     8.51751
 ====================================================================
 * Total *  0.00000     25.99986    69.72312    0.27703    96.00000

 Normal termination of Gaussian 09 at Sun Jul 11 13:38:58 2021.
