 Gaussian 09, Revision D.01,
 Gaussian 09:  AM64L-G09RevD.01 24-Apr-2013

 ----------------------------------------------------------------------
 # b3lyp/def2tzvp empiricaldispersion=gd3 pop=nbo6read pop=saveNBOs int
 =(grid=ultrafine) scf=(tight,maxcycle=300)
 ----------------------------------------------------------------------

 ---------------------------------------------
 Energy Optimisation and Frequency calculation
 ---------------------------------------------
 Symbolic Z-matrix:
 Charge =  0 Multiplicity = 1

                         Standard orientation:
 ---------------------------------------------------------------------
 Center     Atomic      Atomic             Coordinates (Angstroms)
 Number     Number       Type             X           Y           Z
 ---------------------------------------------------------------------
      1          6           0       -0.289544    0.360543    0.586034
      2          6           0       -0.830196    1.642491    0.663257
      3          6           0       -0.149866    2.751163    0.173349
      4          6           0        1.097133    2.584624   -0.411864
      5          6           0        1.659944    1.316018   -0.487033
      6          6           0        0.984682    0.199464    0.009320
      7          1           0       -1.822309    1.761465    1.079212
      8          1           0       -0.600254    3.733574    0.235519
      9          1           0        1.636756    3.437103   -0.805514
     10          1           0        2.638256    1.196171   -0.932914
     11          7           0        1.549767   -1.113269   -0.063563
     12          6           0        2.372340   -1.393291   -1.228983
     13          1           0        3.366770   -0.920007   -1.195844
     14          1           0        2.527175   -2.472070   -1.301474
     15          1           0        1.863168   -1.056855   -2.131852
     16          6           0        2.203805   -1.540027    1.169941
     17          1           0        3.164839   -1.024912    1.328521
     18          1           0        2.393278   -2.615222    1.134067
     19          1           0        1.570254   -1.330814    2.029954
     20          6           0       -1.102859   -0.829008    1.044926
     21          1           0       -1.921702   -0.480847    1.675658
     22          1           0       -0.499423   -1.505516    1.648437
     23          6           0       -1.684876   -1.626195   -0.127394
     24          1           0       -2.045742   -2.609458    0.204884
     25          1           0       -0.912796   -1.842342   -0.871905
     26          6           0       -2.852676   -0.972397   -0.815823
     27          1           0       -3.183330   -1.480334   -1.748314
     28          8           0       -3.433829    0.005331   -0.419735
 ---------------------------------------------------------------------

 SCF Done:  E(RB3LYP) =  -558.394288450     A.U. after   15 cycles

 The electronic state is 1-A.
 Alpha  occ. eigenvalues --  -19.12620 -14.32163 -10.26114 -10.20408 -10.19728
 Alpha  occ. eigenvalues --  -10.19648 -10.18386 -10.17761 -10.17600 -10.17074
 Alpha  occ. eigenvalues --  -10.16961 -10.16681 -10.16621  -1.05309  -0.94043
 Alpha  occ. eigenvalues --   -0.85066  -0.80093  -0.74486  -0.74295  -0.71605
 Alpha  occ. eigenvalues --   -0.67390  -0.64795  -0.59706  -0.57891  -0.55542
 Alpha  occ. eigenvalues --   -0.51591  -0.49907  -0.48117  -0.47397  -0.46873
 Alpha  occ. eigenvalues --   -0.45625  -0.44440  -0.43434  -0.43059  -0.40563
 Alpha  occ. eigenvalues --   -0.40086  -0.39790  -0.39060  -0.38055  -0.37381
 Alpha  occ. eigenvalues --   -0.36418  -0.35520  -0.34109  -0.33872  -0.26547
 Alpha  occ. eigenvalues --   -0.26252  -0.24607  -0.21663
 Alpha virt. eigenvalues --   -0.02962  -0.01079  -0.00682   0.02572   0.04883
 Alpha virt. eigenvalues --    0.05685   0.06090   0.07733   0.07937   0.08508
 Alpha virt. eigenvalues --    0.09287   0.09571   0.10353   0.10846   0.11822

 Mulliken charges:
               1
     1  C   -0.084664
     2  C   -0.115922
     3  C   -0.123782
     4  C   -0.094536
     5  C   -0.211825
     6  C    0.200287
     7  H    0.110747
     8  H    0.104620
     9  H    0.103267
    10  H    0.097241
    11  N   -0.169653
    12  C   -0.285995
    13  H    0.098798
    14  H    0.119978
    15  H    0.130284
    16  C   -0.259291
    17  H    0.099876
    18  H    0.113878
    19  H    0.124984
    20  C   -0.101738
    21  H    0.110172
    22  H    0.083549
    23  C   -0.176837
    24  H    0.108183
    25  H    0.126433
    26  C    0.099288
    27  H    0.069138
    28  O   -0.276476
 Sum of Mulliken charges =   0.00000

 Dipole moment (field-independent basis, Debye):
    X=              2.1763    Y=             -2.2810    Z=             -0.2853  Tot=              3.1655
 Quadrupole moment (field-independent basis, Debye-Ang):
   XX=            -84.4091   YY=            -73.4931   ZZ=            -78.1938
   XY=              3.3276   XZ=             -2.0177   YZ=              0.0078

 Summary of Natural Population Analysis:

                                     Natural Population
             Natural    ---------------------------------------------
  Atom No    Charge        Core      Valence    Rydberg      Total
 --------------------------------------------------------------------
    C  1   -0.03428      1.99999     4.01404    0.02026     6.03428
    C  2   -0.18605      1.99999     4.16857    0.01748     6.18605
    C  3   -0.21347      1.99999     4.19654    0.01695     6.21347
    C  4   -0.20101      1.99999     4.18377    0.01725     6.20101
    C  5   -0.24376      1.99999     4.22640    0.01737     6.24376
    C  6    0.14254      1.99999     3.83705    0.02043     5.85746
    H  7    0.21752      0.00000     0.78082    0.00166     0.78248
    H  8    0.20942      0.00000     0.78920    0.00138     0.79058
    H  9    0.20721      0.00000     0.79138    0.00142     0.79279
    H 10    0.20630      0.00000     0.79147    0.00224     0.79370
    N 11   -0.44163      1.99999     5.41655    0.02509     7.44163
    C 12   -0.39675      1.99999     4.38468    0.01208     6.39675
    H 13    0.16005      0.00000     0.83585    0.00410     0.83995
    H 14    0.19465      0.00000     0.80357    0.00178     0.80535
    H 15    0.20313      0.00000     0.79543    0.00145     0.79687
    C 16   -0.39119      1.99999     4.37955    0.01165     6.39119
    H 17    0.16556      0.00000     0.83015    0.00430     0.83444
    H 18    0.19068      0.00000     0.80747    0.00186     0.80932
    H 19    0.19994      0.00000     0.79856    0.00150     0.80006
    C 20   -0.40795      1.99999     4.39220    0.01576     6.40795
    H 21    0.22018      0.00000     0.77777    0.00205     0.77982
    H 22    0.21185      0.00000     0.78621    0.00194     0.78815
    C 23   -0.49389      1.99999     4.48134    0.01256     6.49389
    H 24    0.22800      0.00000     0.77043    0.00157     0.77200
    H 25    0.23584      0.00000     0.76237    0.00179     0.76416
    C 26    0.43995      1.99999     3.52761    0.03245     5.56005
    H 27    0.09645      0.00000     0.89913    0.00441     0.90355
    O 28   -0.51926      1.99999     6.49419    0.02508     8.51926
 ====================================================================
 * Total *  0.00000     25.99986    69.72229    0.27786    96.00000

 Normal termination of Gaussian 09 at Sun Jul 11 13:54:34 2021.
