 Gaussian 09, Revision D.01,
 Gaussian 09:  AM64L-G09RevD.01 24-Apr-2013

 ----------------------------------------------------------------------
 # b3lyp/def2tzvp empiricaldispersion=gd3 pop=nbo6read pop=saveNBOs int
 =(grid=ultrafine) scf=(tight,maxcycle=300)
 ----------------------------------------------------------------------

 ---------------------------------------------
 Energy Optimisation and Frequency calculation
 ---------------------------------------------
 Symbolic Z-matrix:
 Charge =  0 Multiplicity = 1

                         Standard orientation:
 ---------------------------------------------------------------------
 Center     Atomic      Atomic             Coordinates (Angstroms)
 Number     Number       Type             X           Y           Z
 ---------------------------------------------------------------------
      1          6           0       -0.803143   -0.849642    0.381667
      2          6           0       -2.059800   -1.413105    0.166240
      3          6           0       -3.117455   -0.666342   -0.339884
      4          6           0       -2.923300    0.673714   -0.644571
      5          6           0       -1.682990    1.259263   -0.421275
      6          6           0       -0.623262    0.515306    0.098602
      7          1           0       -2.205166   -2.465952    0.379562
      8          1           0       -4.080092   -1.132744   -0.506019
      9          1           0       -3.734230    1.266782   -1.048442
     10          1           0       -1.539212    2.306641   -0.650345
     11          7           0        0.658795    1.094598    0.338956
     12          6           0        1.105212    2.100387   -0.612735
     13          1           0        0.612389    3.074474   -0.479929
     14          1           0        2.180284    2.241454   -0.494220
     15          1           0        0.930000    1.746817   -1.627016
     16          6           0        0.878921    1.503947    1.721952
     17          1           0        0.559836    0.719757    2.406494
     18          1           0        1.942702    1.691915    1.882525
     19          1           0        0.323435    2.419846    1.974663
     20          6           0        0.346179   -1.722333    0.826405
     21          1           0        0.807710   -1.340795    1.741747
     22          1           0       -0.049460   -2.707332    1.078059
     23          6           0        1.440911   -1.885685   -0.246084
     24          1           0        2.015649   -2.793324   -0.020321
     25          1           0        1.014576   -2.011245   -1.242330
     26          6           0        2.462941   -0.775881   -0.285349
     27          1           0        2.828833   -0.457539    0.714208
     28          8           0        2.954488   -0.332339   -1.293892
 ---------------------------------------------------------------------

 SCF Done:  E(RB3LYP) =  -558.396508010     A.U. after   14 cycles

 The electronic state is 1-A.
 Alpha  occ. eigenvalues --  -19.10868 -14.32903 -10.25139 -10.21047 -10.20168
 Alpha  occ. eigenvalues --  -10.19136 -10.18644 -10.18588 -10.17988 -10.17810
 Alpha  occ. eigenvalues --  -10.17766 -10.17680 -10.17568  -1.03715  -0.94644
 Alpha  occ. eigenvalues --   -0.85855  -0.80520  -0.75124  -0.74658  -0.71809
 Alpha  occ. eigenvalues --   -0.67256  -0.64913  -0.60365  -0.58147  -0.56976
 Alpha  occ. eigenvalues --   -0.52314  -0.49063  -0.48597  -0.47324  -0.46489
 Alpha  occ. eigenvalues --   -0.44939  -0.44647  -0.43974  -0.43355  -0.41295
 Alpha  occ. eigenvalues --   -0.40634  -0.39414  -0.38700  -0.38014  -0.37670
 Alpha  occ. eigenvalues --   -0.36770  -0.35853  -0.35018  -0.33959  -0.27024
 Alpha  occ. eigenvalues --   -0.25853  -0.24669  -0.22374
 Alpha virt. eigenvalues --   -0.01932  -0.01617  -0.01084   0.03036   0.04553
 Alpha virt. eigenvalues --    0.04828   0.06215   0.07099   0.08093   0.08692
 Alpha virt. eigenvalues --    0.09353   0.09684   0.10142   0.11264   0.12104

 Mulliken charges:
               1
     1  C   -0.025717
     2  C   -0.146460
     3  C   -0.124643
     4  C   -0.092429
     5  C   -0.218363
     6  C    0.229257
     7  H    0.096676
     8  H    0.106122
     9  H    0.107383
    10  H    0.103244
    11  N   -0.186665
    12  C   -0.274100
    13  H    0.101690
    14  H    0.134470
    15  H    0.142597
    16  C   -0.260829
    17  H    0.126204
    18  H    0.122720
    19  H    0.104362
    20  C   -0.212307
    21  H    0.097786
    22  H    0.106357
    23  C   -0.086621
    24  H    0.101749
    25  H    0.100274
    26  C    0.100855
    27  H    0.037478
    28  O   -0.291090
 Sum of Mulliken charges =   0.00000

 Dipole moment (field-independent basis, Debye):
    X=             -1.7017    Y=             -0.1375    Z=              2.2531  Tot=              2.8269
 Quadrupole moment (field-independent basis, Debye-Ang):
   XX=            -84.7467   YY=            -71.4802   ZZ=            -82.7600
   XY=             -0.1268   XZ=              8.9735   YZ=             -1.8090

 Summary of Natural Population Analysis:

                                     Natural Population
             Natural    ---------------------------------------------
  Atom No    Charge        Core      Valence    Rydberg      Total
 --------------------------------------------------------------------
    C  1   -0.03227      1.99999     4.01280    0.01949     6.03227
    C  2   -0.19596      1.99999     4.17895    0.01703     6.19596
    C  3   -0.21210      1.99999     4.19482    0.01729     6.21210
    C  4   -0.20001      1.99999     4.18259    0.01743     6.20001
    C  5   -0.23269      1.99999     4.21571    0.01700     6.23269
    C  6    0.14584      1.99999     3.83309    0.02108     5.85416
    H  7    0.20377      0.00000     0.79454    0.00169     0.79623
    H  8    0.21000      0.00000     0.78865    0.00136     0.79000
    H  9    0.20947      0.00000     0.78915    0.00137     0.79053
    H 10    0.21028      0.00000     0.78760    0.00211     0.78972
    N 11   -0.43089      1.99999     5.40430    0.02660     7.43089
    C 12   -0.40274      1.99999     4.38957    0.01319     6.40274
    H 13    0.16369      0.00000     0.83284    0.00347     0.83631
    H 14    0.20837      0.00000     0.78965    0.00198     0.79163
    H 15    0.21461      0.00000     0.78381    0.00159     0.78539
    C 16   -0.39284      1.99999     4.38055    0.01231     6.39284
    H 17    0.19939      0.00000     0.79910    0.00151     0.80061
    H 18    0.19444      0.00000     0.80356    0.00200     0.80556
    H 19    0.17105      0.00000     0.82498    0.00397     0.82895
    C 20   -0.39710      1.99999     4.38438    0.01273     6.39710
    H 21    0.20395      0.00000     0.79324    0.00281     0.79605
    H 22    0.21035      0.00000     0.78792    0.00173     0.78965
    C 23   -0.48888      1.99999     4.47534    0.01355     6.48888
    H 24    0.22537      0.00000     0.77301    0.00161     0.77463
    H 25    0.22168      0.00000     0.77570    0.00262     0.77832
    C 26    0.45078      1.99999     3.51526    0.03397     5.54922
    H 27    0.09069      0.00000     0.90431    0.00500     0.90931
    O 28   -0.54824      1.99999     6.52265    0.02559     8.54824
 ====================================================================
 * Total *  0.00000     25.99986    69.71807    0.28208    96.00000

 Normal termination of Gaussian 09 at Mon Jul 12 00:30:32 2021.
