 Gaussian 09, Revision D.01,
 Gaussian 09:  AM64L-G09RevD.01 24-Apr-2013

 ----------------------------------------------------------------------
 # b3lyp/def2tzvp empiricaldispersion=gd3 pop=nbo6read pop=saveNBOs int
 =(grid=ultrafine) scf=(tight,maxcycle=300)
 ----------------------------------------------------------------------

 ---------------------------------------------
 Energy Optimisation and Frequency calculation
 ---------------------------------------------
 Symbolic Z-matrix:
 Charge =  0 Multiplicity = 1

                         Standard orientation:
 ---------------------------------------------------------------------
 Center     Atomic      Atomic             Coordinates (Angstroms)
 Number     Number       Type             X           Y           Z
 ---------------------------------------------------------------------
      1          6           0       -0.743277   -0.899037    0.248774
      2          6           0       -1.995895   -1.511092    0.237584
      3          6           0       -3.163154   -0.794562    0.000084
      4          6           0       -3.086911    0.569307   -0.241770
      5          6           0       -1.851799    1.205508   -0.219021
      6          6           0       -0.678880    0.492236    0.036655
      7          1           0       -2.053241   -2.581777    0.396562
      8          1           0       -4.119186   -1.302134   -0.009932
      9          1           0       -3.983995    1.142870   -0.438678
     10          1           0       -1.803359    2.272020   -0.391428
     11          7           0        0.593484    1.133471    0.073330
     12          6           0        0.764637    2.300310   -0.777240
     13          1           0        0.259367    3.199559   -0.394483
     14          1           0        1.830150    2.526965   -0.846869
     15          1           0        0.388223    2.090198   -1.778033
     16          6           0        1.111030    1.368271    1.421071
     17          1           0        0.611945    2.225266    1.895775
     18          1           0        2.183733    1.555695    1.372805
     19          1           0        0.953366    0.493596    2.046385
     20          6           0        0.496596   -1.748481    0.395683
     21          1           0        0.182798   -2.785802    0.516002
     22          1           0        1.068504   -1.496724    1.291422
     23          6           0        1.454319   -1.647156   -0.813124
     24          1           0        2.010474   -2.585908   -0.905579
     25          1           0        0.892979   -1.506338   -1.738407
     26          6           0        2.500667   -0.564185   -0.666238
     27          1           0        2.618906    0.120907   -1.528332
     28          8           0        3.245118   -0.491176    0.283092
 ---------------------------------------------------------------------

 SCF Done:  E(RB3LYP) =  -558.395956546     A.U. after   14 cycles

 The electronic state is 1-A.
 Alpha  occ. eigenvalues --  -19.11019 -14.33219 -10.25205 -10.21121 -10.20036
 Alpha  occ. eigenvalues --  -10.19278 -10.18476 -10.18085 -10.17873 -10.17727
 Alpha  occ. eigenvalues --  -10.17621 -10.17617 -10.17415  -1.03873  -0.94755
 Alpha  occ. eigenvalues --   -0.85732  -0.80095  -0.75043  -0.74499  -0.71815
 Alpha  occ. eigenvalues --   -0.67446  -0.64851  -0.60443  -0.58365  -0.55511
 Alpha  occ. eigenvalues --   -0.52162  -0.49607  -0.48847  -0.47727  -0.46785
 Alpha  occ. eigenvalues --   -0.45391  -0.43877  -0.43650  -0.43182  -0.41719
 Alpha  occ. eigenvalues --   -0.39963  -0.39592  -0.38703  -0.37755  -0.37286
 Alpha  occ. eigenvalues --   -0.36924  -0.35521  -0.34821  -0.33778  -0.27345
 Alpha  occ. eigenvalues --   -0.25765  -0.24876  -0.22274
 Alpha virt. eigenvalues --   -0.02296  -0.01448  -0.01194   0.02957   0.04864
 Alpha virt. eigenvalues --    0.05174   0.05885   0.07833   0.08287   0.08727
 Alpha virt. eigenvalues --    0.09106   0.09872   0.10649   0.11344   0.11538

 Mulliken charges:
               1
     1  C   -0.034288
     2  C   -0.159119
     3  C   -0.123804
     4  C   -0.100395
     5  C   -0.217042
     6  C    0.204157
     7  H    0.097525
     8  H    0.105387
     9  H    0.106374
    10  H    0.103928
    11  N   -0.162807
    12  C   -0.306281
    13  H    0.106354
    14  H    0.137403
    15  H    0.134715
    16  C   -0.256804
    17  H    0.102944
    18  H    0.145202
    19  H    0.127665
    20  C   -0.170328
    21  H    0.101956
    22  H    0.113249
    23  C   -0.097363
    24  H    0.105701
    25  H    0.090595
    26  C    0.093384
    27  H    0.055724
    28  O   -0.304033
 Sum of Mulliken charges =   0.00000

 Dipole moment (field-independent basis, Debye):
    X=             -1.9833    Y=              0.5265    Z=             -1.2397  Tot=              2.3974
 Quadrupole moment (field-independent basis, Debye-Ang):
   XX=            -87.9119   YY=            -71.9551   ZZ=            -79.6449
   XY=              1.4462   XZ=             -3.2674   YZ=             -0.1773

 Summary of Natural Population Analysis:

                                     Natural Population
             Natural    ---------------------------------------------
  Atom No    Charge        Core      Valence    Rydberg      Total
 --------------------------------------------------------------------
    C  1   -0.03241      1.99999     4.01309    0.01933     6.03241
    C  2   -0.19513      1.99999     4.17779    0.01735     6.19513
    C  3   -0.21531      1.99999     4.19761    0.01770     6.21531
    C  4   -0.20053      1.99999     4.18285    0.01769     6.20053
    C  5   -0.24004      1.99999     4.22257    0.01747     6.24004
    C  6    0.14436      1.99999     3.83449    0.02117     5.85564
    H  7    0.20387      0.00000     0.79446    0.00168     0.79613
    H  8    0.21014      0.00000     0.78851    0.00134     0.78986
    H  9    0.20925      0.00000     0.78937    0.00138     0.79075
    H 10    0.20898      0.00000     0.78891    0.00211     0.79102
    N 11   -0.42384      1.99999     5.39723    0.02662     7.42384
    C 12   -0.40163      1.99999     4.38901    0.01263     6.40163
    H 13    0.16756      0.00000     0.82868    0.00376     0.83244
    H 14    0.20192      0.00000     0.79622    0.00185     0.79808
    H 15    0.20352      0.00000     0.79492    0.00157     0.79648
    C 16   -0.39745      1.99999     4.38460    0.01286     6.39745
    H 17    0.16976      0.00000     0.82667    0.00358     0.83024
    H 18    0.21210      0.00000     0.78586    0.00204     0.78790
    H 19    0.20515      0.00000     0.79337    0.00147     0.79485
    C 20   -0.39818      1.99999     4.38520    0.01299     6.39818
    H 21    0.20880      0.00000     0.78945    0.00175     0.79120
    H 22    0.22240      0.00000     0.77469    0.00291     0.77760
    C 23   -0.48926      1.99999     4.47587    0.01341     6.48926
    H 24    0.22952      0.00000     0.76883    0.00165     0.77048
    H 25    0.20698      0.00000     0.79106    0.00196     0.79302
    C 26    0.44872      1.99999     3.51766    0.03363     5.55128
    H 27    0.10217      0.00000     0.89314    0.00469     0.89783
    O 28   -0.56141      1.99999     6.53586    0.02556     8.56141
 ====================================================================
 * Total *  0.00000     25.99986    69.71798    0.28216    96.00000

 Normal termination of Gaussian 09 at Sun Jul 11 14:04:33 2021.
